REMARK  Name = 4de1_ligand
REMARK  3 active torsions:
REMARK  status: ('A' for Active; 'I' for Inactive)
REMARK    1  A    between atoms: C_2  and  C_3
REMARK    2  A    between atoms: N_12  and  C_13
REMARK    3  A    between atoms: C_18  and  C_19
REMARK                            x       y       z     vdW  Elec       q    Type
REMARK                         _______ _______ _______ _____ _____    ______ ____
ROOT
ATOM      1  O   UNL     1      -9.239  55.419  13.816  0.00  0.00    -0.491 OA
ATOM      2  C   UNL     1      -8.886  55.605  12.667  0.00  0.00    +0.146 C 
ATOM      3  N   UNL     1      -7.844  54.945  12.141  0.00  0.00    -0.282 N 
ATOM      4  H   UNL     1      -7.660  55.088  11.184  0.00  0.00    +0.000 HD
ENDROOT
BRANCH   2   5
ATOM      5  C   UNL     1      -9.625  56.555  11.793  0.00  0.00    +0.058 A 
ATOM      6  C   UNL     1     -10.680  57.257  12.388  0.00  0.00    -0.021 A 
ATOM      7  C   UNL     1     -11.377  58.176  11.629  0.00  0.00    -0.003 A 
ATOM      8  C   UNL     1     -12.447  59.032  11.964  0.00  0.00    +0.027 A 
ATOM      9  N   UNL     1     -12.681  59.702  10.777  0.00  0.00    -0.314 N 
ATOM     10  N   UNL     1     -11.829  59.336   9.779  0.00  0.00    -0.375 NA
ATOM     11  C   UNL     1     -11.059  58.406  10.333  0.00  0.00    -0.009 A 
ATOM     12  C   UNL     1     -10.035  57.717   9.701  0.00  0.00    -0.032 A 
ATOM     13  C   UNL     1      -9.310  56.779  10.439  0.00  0.00    -0.040 A 
ATOM     14  H   UNL     1     -13.391  60.375  10.665  0.00  0.00    +0.000 HD
ENDBRANCH   2   5
BRANCH   3  15
ATOM     15  C   UNL     1      -6.980  54.057  12.840  0.00  0.00    -0.043 A 
ATOM     16  C   UNL     1      -5.633  54.046  12.501  0.00  0.00    -0.037 A 
ATOM     17  C   UNL     1      -7.441  53.245  13.878  0.00  0.00    -0.080 A 
ATOM     18  C   UNL     1      -6.546  52.513  14.640  0.00  0.00    -0.106 A 
ATOM     19  C   UNL     1      -5.203  52.503  14.307  0.00  0.00    -0.078 A 
ATOM     20  C   UNL     1      -4.736  53.247  13.221  0.00  0.00    +0.009 A 
BRANCH  20  21
ATOM     21  C   UNL     1      -3.344  53.169  12.871  0.00  0.00    +0.170 A 
ATOM     22  N   UNL     1      -2.848  53.765  11.763  0.00  0.00    -0.169 N 
ATOM     23  N   UNL     1      -1.529  53.504  11.657  0.00  0.00    -0.184 NA
ATOM     24  N   UNL     1      -1.250  52.774  12.718  0.00  0.00    -0.180 NA
ATOM     25  N   UNL     1      -2.358  52.549  13.507  0.00  0.00    -0.222 N 
ATOM     26  H   UNL     1      -3.371  54.308  11.129  0.00  0.00    +0.000 HD
ATOM     27  H   UNL     1      -2.407  52.043  14.350  0.00  0.00    +0.000 HD
ENDBRANCH  20  21
ENDBRANCH   3  15
TORSDOF 3
